V -t * -v 1.0a5 -a 0
A -t * -n 1 -p 0 -o 0x7fffffff -c 30 -a 1
A -t * -h 1 -m 1073741823 -s 0
c -t * -i 1 -n Blue
c -t * -i 2 -n Red
n -t * -a 4 -s 4 -S UP -v circle -c black -i black
n -t * -a 0 -s 0 -S UP -v circle -c black -i black
n -t * -a 5 -s 5 -S UP -v circle -c black -i black
n -t * -a 1 -s 1 -S UP -v circle -c black -i black
n -t * -a 2 -s 2 -S UP -v circle -c black -i black
n -t * -a 3 -s 3 -S UP -v circle -c black -i black
l -t * -s 0 -d 2 -S UP -r 2000000 -D 0.01 -c black -o right-down
l -t * -s 1 -d 2 -S UP -r 2000000 -D 0.01 -c black -o right-up
l -t * -s 2 -d 3 -S UP -r 300000 -D 0.10000000000000001 -c black -o right
l -t * -s 3 -d 4 -S UP -r 500000 -D 0.040000000000000001 -c black -o right-up
l -t * -s 3 -d 5 -S UP -r 500000 -D 0.040000000000000001 -c black -o right-down
q -t * -s 3 -d 2 -a 0.5
q -t * -s 2 -d 3 -a 0.5
+ -t 0.1 -s 1 -d 2 -p cbr -e 1000 -c 2 -i 0 -a 2 -x {1.0 5.0 0 ------- null}
- -t 0.1 -s 1 -d 2 -p cbr -e 1000 -c 2 -i 0 -a 2 -x {1.0 5.0 0 ------- null}
h -t 0.1 -s 1 -d 2 -p cbr -e 1000 -c 2 -i 0 -a 2 -x {1.0 5.0 -1 ------- null}
+ -t 0.1 -s 1 -d 2 -p cbr -e 24 -c 2 -i 1 -a 2 -x {1.0 5.0 1 ------- null}
- -t 0.104 -s 1 -d 2 -p cbr -e 24 -c 2 -i 1 -a 2 -x {1.0 5.0 1 ------- null}
h -t 0.104 -s 1 -d 2 -p cbr -e 24 -c 2 -i 1 -a 2 -x {1.0 5.0 -1 ------- null}
r -t 0.114 -s 1 -d 2 -p cbr -e 1000 -c 2 -i 0 -a 2 -x {1.0 5.0 0 ------- null}
+ -t 0.114 -s 2 -d 3 -p cbr -e 1000 -c 2 -i 0 -a 2 -x {1.0 5.0 0 ------- null}
- -t 0.114 -s 2 -d 3 -p cbr -e 1000 -c 2 -i 0 -a 2 -x {1.0 5.0 0 ------- null}
h -t 0.114 -s 2 -d 3 -p cbr -e 1000 -c 2 -i 0 -a 2 -x {1.0 5.0 -1 ------- null}
r -t 0.114096 -s 1 -d 2 -p cbr -e 24 -c 2 -i 1 -a 2 -x {1.0 5.0 1 ------- null}
+ -t 0.114096 -s 2 -d 3 -p cbr -e 24 -c 2 -i 1 -a 2 -x {1.0 5.0 1 ------- null}
- -t 0.140666666666667 -s 2 -d 3 -p cbr -e 24 -c 2 -i 1 -a 2 -x {1.0 5.0 1 ------- null}
h -t 0.140666666666667 -s 2 -d 3 -p cbr -e 24 -c 2 -i 1 -a 2 -x {1.0 5.0 -1 ------- null}
+ -t 0.18192 -s 1 -d 2 -p cbr -e 1000 -c 2 -i 2 -a 2 -x {1.0 5.0 2 ------- null}
- -t 0.18192 -s 1 -d 2 -p cbr -e 1000 -c 2 -i 2 -a 2 -x {1.0 5.0 2 ------- null}
h -t 0.18192 -s 1 -d 2 -p cbr -e 1000 -c 2 -i 2 -a 2 -x {1.0 5.0 -1 ------- null}
+ -t 0.18192 -s 1 -d 2 -p cbr -e 24 -c 2 -i 3 -a 2 -x {1.0 5.0 3 ------- null}
- -t 0.18592 -s 1 -d 2 -p cbr -e 24 -c 2 -i 3 -a 2 -x {1.0 5.0 3 ------- null}
h -t 0.18592 -s 1 -d 2 -p cbr -e 24 -c 2 -i 3 -a 2 -x {1.0 5.0 -1 ------- null}
r -t 0.19592 -s 1 -d 2 -p cbr -e 1000 -c 2 -i 2 -a 2 -x {1.0 5.0 2 ------- null}
+ -t 0.19592 -s 2 -d 3 -p cbr -e 1000 -c 2 -i 2 -a 2 -x {1.0 5.0 2 ------- null}
- -t 0.19592 -s 2 -d 3 -p cbr -e 1000 -c 2 -i 2 -a 2 -x {1.0 5.0 2 ------- null}
h -t 0.19592 -s 2 -d 3 -p cbr -e 1000 -c 2 -i 2 -a 2 -x {1.0 5.0 -1 ------- null}
r -t 0.196016 -s 1 -d 2 -p cbr -e 24 -c 2 -i 3 -a 2 -x {1.0 5.0 3 ------- null}
+ -t 0.196016 -s 2 -d 3 -p cbr -e 24 -c 2 -i 3 -a 2 -x {1.0 5.0 3 ------- null}
- -t 0.222586666666667 -s 2 -d 3 -p cbr -e 24 -c 2 -i 3 -a 2 -x {1.0 5.0 3 ------- null}
h -t 0.222586666666667 -s 2 -d 3 -p cbr -e 24 -c 2 -i 3 -a 2 -x {1.0 5.0 -1 ------- null}
r -t 0.240666666666667 -s 2 -d 3 -p cbr -e 1000 -c 2 -i 0 -a 2 -x {1.0 5.0 0 ------- null}
+ -t 0.240666666666667 -s 3 -d 5 -p cbr -e 1000 -c 2 -i 0 -a 2 -x {1.0 5.0 0 ------- null}
- -t 0.240666666666667 -s 3 -d 5 -p cbr -e 1000 -c 2 -i 0 -a 2 -x {1.0 5.0 0 ------- null}
h -t 0.240666666666667 -s 3 -d 5 -p cbr -e 1000 -c 2 -i 0 -a 2 -x {1.0 5.0 -1 ------- null}
r -t 0.241306666666667 -s 2 -d 3 -p cbr -e 24 -c 2 -i 1 -a 2 -x {1.0 5.0 1 ------- null}
+ -t 0.241306666666667 -s 3 -d 5 -p cbr -e 24 -c 2 -i 1 -a 2 -x {1.0 5.0 1 ------- null}
- -t 0.256666666666667 -s 3 -d 5 -p cbr -e 24 -c 2 -i 1 -a 2 -x {1.0 5.0 1 ------- null}
h -t 0.256666666666667 -s 3 -d 5 -p cbr -e 24 -c 2 -i 1 -a 2 -x {1.0 5.0 -1 ------- null}
+ -t 0.26384 -s 1 -d 2 -p cbr -e 1000 -c 2 -i 4 -a 2 -x {1.0 5.0 4 ------- null}
- -t 0.26384 -s 1 -d 2 -p cbr -e 1000 -c 2 -i 4 -a 2 -x {1.0 5.0 4 ------- null}
h -t 0.26384 -s 1 -d 2 -p cbr -e 1000 -c 2 -i 4 -a 2 -x {1.0 5.0 -1 ------- null}
+ -t 0.26384 -s 1 -d 2 -p cbr -e 24 -c 2 -i 5 -a 2 -x {1.0 5.0 5 ------- null}
- -t 0.26784 -s 1 -d 2 -p cbr -e 24 -c 2 -i 5 -a 2 -x {1.0 5.0 5 ------- null}
h -t 0.26784 -s 1 -d 2 -p cbr -e 24 -c 2 -i 5 -a 2 -x {1.0 5.0 -1 ------- null}
r -t 0.27784 -s 1 -d 2 -p cbr -e 1000 -c 2 -i 4 -a 2 -x {1.0 5.0 4 ------- null}
+ -t 0.27784 -s 2 -d 3 -p cbr -e 1000 -c 2 -i 4 -a 2 -x {1.0 5.0 4 ------- null}
- -t 0.27784 -s 2 -d 3 -p cbr -e 1000 -c 2 -i 4 -a 2 -x {1.0 5.0 4 ------- null}
h -t 0.27784 -s 2 -d 3 -p cbr -e 1000 -c 2 -i 4 -a 2 -x {1.0 5.0 -1 ------- null}
r -t 0.277936 -s 1 -d 2 -p cbr -e 24 -c 2 -i 5 -a 2 -x {1.0 5.0 5 ------- null}
+ -t 0.277936 -s 2 -d 3 -p cbr -e 24 -c 2 -i 5 -a 2 -x {1.0 5.0 5 ------- null}
r -t 0.296666666666667 -s 3 -d 5 -p cbr -e 1000 -c 2 -i 0 -a 2 -x {1.0 5.0 0 ------- null}
r -t 0.297050666666667 -s 3 -d 5 -p cbr -e 24 -c 2 -i 1 -a 2 -x {1.0 5.0 1 ------- null}
- -t 0.304506666666667 -s 2 -d 3 -p cbr -e 24 -c 2 -i 5 -a 2 -x {1.0 5.0 5 ------- null}
h -t 0.304506666666667 -s 2 -d 3 -p cbr -e 24 -c 2 -i 5 -a 2 -x {1.0 5.0 -1 ------- null}
r -t 0.322586666666667 -s 2 -d 3 -p cbr -e 1000 -c 2 -i 2 -a 2 -x {1.0 5.0 2 ------- null}
+ -t 0.322586666666667 -s 3 -d 5 -p cbr -e 1000 -c 2 -i 2 -a 2 -x {1.0 5.0 2 ------- null}
- -t 0.322586666666667 -s 3 -d 5 -p cbr -e 1000 -c 2 -i 2 -a 2 -x {1.0 5.0 2 ------- null}
h -t 0.322586666666667 -s 3 -d 5 -p cbr -e 1000 -c 2 -i 2 -a 2 -x {1.0 5.0 -1 ------- null}
r -t 0.323226666666667 -s 2 -d 3 -p cbr -e 24 -c 2 -i 3 -a 2 -x {1.0 5.0 3 ------- null}
+ -t 0.323226666666667 -s 3 -d 5 -p cbr -e 24 -c 2 -i 3 -a 2 -x {1.0 5.0 3 ------- null}
- -t 0.338586666666667 -s 3 -d 5 -p cbr -e 24 -c 2 -i 3 -a 2 -x {1.0 5.0 3 ------- null}
h -t 0.338586666666667 -s 3 -d 5 -p cbr -e 24 -c 2 -i 3 -a 2 -x {1.0 5.0 -1 ------- null}
+ -t 0.34576 -s 1 -d 2 -p cbr -e 1000 -c 2 -i 6 -a 2 -x {1.0 5.0 6 ------- null}
- -t 0.34576 -s 1 -d 2 -p cbr -e 1000 -c 2 -i 6 -a 2 -x {1.0 5.0 6 ------- null}
h -t 0.34576 -s 1 -d 2 -p cbr -e 1000 -c 2 -i 6 -a 2 -x {1.0 5.0 -1 ------- null}
+ -t 0.34576 -s 1 -d 2 -p cbr -e 24 -c 2 -i 7 -a 2 -x {1.0 5.0 7 ------- null}
- -t 0.34976 -s 1 -d 2 -p cbr -e 24 -c 2 -i 7 -a 2 -x {1.0 5.0 7 ------- null}
h -t 0.34976 -s 1 -d 2 -p cbr -e 24 -c 2 -i 7 -a 2 -x {1.0 5.0 -1 ------- null}
r -t 0.35976 -s 1 -d 2 -p cbr -e 1000 -c 2 -i 6 -a 2 -x {1.0 5.0 6 ------- null}
+ -t 0.35976 -s 2 -d 3 -p cbr -e 1000 -c 2 -i 6 -a 2 -x {1.0 5.0 6 ------- null}
- -t 0.35976 -s 2 -d 3 -p cbr -e 1000 -c 2 -i 6 -a 2 -x {1.0 5.0 6 ------- null}
h -t 0.35976 -s 2 -d 3 -p cbr -e 1000 -c 2 -i 6 -a 2 -x {1.0 5.0 -1 ------- null}
r -t 0.359856 -s 1 -d 2 -p cbr -e 24 -c 2 -i 7 -a 2 -x {1.0 5.0 7 ------- null}
+ -t 0.359856 -s 2 -d 3 -p cbr -e 24 -c 2 -i 7 -a 2 -x {1.0 5.0 7 ------- null}
r -t 0.378586666666667 -s 3 -d 5 -p cbr -e 1000 -c 2 -i 2 -a 2 -x {1.0 5.0 2 ------- null}
r -t 0.378970666666667 -s 3 -d 5 -p cbr -e 24 -c 2 -i 3 -a 2 -x {1.0 5.0 3 ------- null}
- -t 0.386426666666667 -s 2 -d 3 -p cbr -e 24 -c 2 -i 7 -a 2 -x {1.0 5.0 7 ------- null}
h -t 0.386426666666667 -s 2 -d 3 -p cbr -e 24 -c 2 -i 7 -a 2 -x {1.0 5.0 -1 ------- null}
r -t 0.404506666666667 -s 2 -d 3 -p cbr -e 1000 -c 2 -i 4 -a 2 -x {1.0 5.0 4 ------- null}
+ -t 0.404506666666667 -s 3 -d 5 -p cbr -e 1000 -c 2 -i 4 -a 2 -x {1.0 5.0 4 ------- null}
- -t 0.404506666666667 -s 3 -d 5 -p cbr -e 1000 -c 2 -i 4 -a 2 -x {1.0 5.0 4 ------- null}
h -t 0.404506666666667 -s 3 -d 5 -p cbr -e 1000 -c 2 -i 4 -a 2 -x {1.0 5.0 -1 ------- null}
r -t 0.405146666666667 -s 2 -d 3 -p cbr -e 24 -c 2 -i 5 -a 2 -x {1.0 5.0 5 ------- null}
+ -t 0.405146666666667 -s 3 -d 5 -p cbr -e 24 -c 2 -i 5 -a 2 -x {1.0 5.0 5 ------- null}
- -t 0.420506666666667 -s 3 -d 5 -p cbr -e 24 -c 2 -i 5 -a 2 -x {1.0 5.0 5 ------- null}
h -t 0.420506666666667 -s 3 -d 5 -p cbr -e 24 -c 2 -i 5 -a 2 -x {1.0 5.0 -1 ------- null}
+ -t 0.42768 -s 1 -d 2 -p cbr -e 1000 -c 2 -i 8 -a 2 -x {1.0 5.0 8 ------- null}
- -t 0.42768 -s 1 -d 2 -p cbr -e 1000 -c 2 -i 8 -a 2 -x {1.0 5.0 8 ------- null}
h -t 0.42768 -s 1 -d 2 -p cbr -e 1000 -c 2 -i 8 -a 2 -x {1.0 5.0 -1 ------- null}
+ -t 0.42768 -s 1 -d 2 -p cbr -e 24 -c 2 -i 9 -a 2 -x {1.0 5.0 9 ------- null}
- -t 0.43168 -s 1 -d 2 -p cbr -e 24 -c 2 -i 9 -a 2 -x {1.0 5.0 9 ------- null}
h -t 0.43168 -s 1 -d 2 -p cbr -e 24 -c 2 -i 9 -a 2 -x {1.0 5.0 -1 ------- null}
r -t 0.44168 -s 1 -d 2 -p cbr -e 1000 -c 2 -i 8 -a 2 -x {1.0 5.0 8 ------- null}
+ -t 0.44168 -s 2 -d 3 -p cbr -e 1000 -c 2 -i 8 -a 2 -x {1.0 5.0 8 ------- null}
- -t 0.44168 -s 2 -d 3 -p cbr -e 1000 -c 2 -i 8 -a 2 -x {1.0 5.0 8 ------- null}
h -t 0.44168 -s 2 -d 3 -p cbr -e 1000 -c 2 -i 8 -a 2 -x {1.0 5.0 -1 ------- null}
r -t 0.441776 -s 1 -d 2 -p cbr -e 24 -c 2 -i 9 -a 2 -x {1.0 5.0 9 ------- null}
+ -t 0.441776 -s 2 -d 3 -p cbr -e 24 -c 2 -i 9 -a 2 -x {1.0 5.0 9 ------- null}
r -t 0.460506666666667 -s 3 -d 5 -p cbr -e 1000 -c 2 -i 4 -a 2 -x {1.0 5.0 4 ------- null}
r -t 0.460890666666667 -s 3 -d 5 -p cbr -e 24 -c 2 -i 5 -a 2 -x {1.0 5.0 5 ------- null}
- -t 0.468346666666667 -s 2 -d 3 -p cbr -e 24 -c 2 -i 9 -a 2 -x {1.0 5.0 9 ------- null}
h -t 0.468346666666667 -s 2 -d 3 -p cbr -e 24 -c 2 -i 9 -a 2 -x {1.0 5.0 -1 ------- null}
r -t 0.486426666666667 -s 2 -d 3 -p cbr -e 1000 -c 2 -i 6 -a 2 -x {1.0 5.0 6 ------- null}
+ -t 0.486426666666667 -s 3 -d 5 -p cbr -e 1000 -c 2 -i 6 -a 2 -x {1.0 5.0 6 ------- null}
- -t 0.486426666666667 -s 3 -d 5 -p cbr -e 1000 -c 2 -i 6 -a 2 -x {1.0 5.0 6 ------- null}
h -t 0.486426666666667 -s 3 -d 5 -p cbr -e 1000 -c 2 -i 6 -a 2 -x {1.0 5.0 -1 ------- null}
r -t 0.487066666666667 -s 2 -d 3 -p cbr -e 24 -c 2 -i 7 -a 2 -x {1.0 5.0 7 ------- null}
+ -t 0.487066666666667 -s 3 -d 5 -p cbr -e 24 -c 2 -i 7 -a 2 -x {1.0 5.0 7 ------- null}
- -t 0.502426666666667 -s 3 -d 5 -p cbr -e 24 -c 2 -i 7 -a 2 -x {1.0 5.0 7 ------- null}
h -t 0.502426666666667 -s 3 -d 5 -p cbr -e 24 -c 2 -i 7 -a 2 -x {1.0 5.0 -1 ------- null}
+ -t 0.5096 -s 1 -d 2 -p cbr -e 1000 -c 2 -i 10 -a 2 -x {1.0 5.0 10 ------- null}
- -t 0.5096 -s 1 -d 2 -p cbr -e 1000 -c 2 -i 10 -a 2 -x {1.0 5.0 10 ------- null}
h -t 0.5096 -s 1 -d 2 -p cbr -e 1000 -c 2 -i 10 -a 2 -x {1.0 5.0 -1 ------- null}
+ -t 0.5096 -s 1 -d 2 -p cbr -e 24 -c 2 -i 11 -a 2 -x {1.0 5.0 11 ------- null}
- -t 0.5136 -s 1 -d 2 -p cbr -e 24 -c 2 -i 11 -a 2 -x {1.0 5.0 11 ------- null}
h -t 0.5136 -s 1 -d 2 -p cbr -e 24 -c 2 -i 11 -a 2 -x {1.0 5.0 -1 ------- null}
r -t 0.5236 -s 1 -d 2 -p cbr -e 1000 -c 2 -i 10 -a 2 -x {1.0 5.0 10 ------- null}
+ -t 0.5236 -s 2 -d 3 -p cbr -e 1000 -c 2 -i 10 -a 2 -x {1.0 5.0 10 ------- null}
- -t 0.5236 -s 2 -d 3 -p cbr -e 1000 -c 2 -i 10 -a 2 -x {1.0 5.0 10 ------- null}
h -t 0.5236 -s 2 -d 3 -p cbr -e 1000 -c 2 -i 10 -a 2 -x {1.0 5.0 -1 ------- null}
r -t 0.523696 -s 1 -d 2 -p cbr -e 24 -c 2 -i 11 -a 2 -x {1.0 5.0 11 ------- null}
+ -t 0.523696 -s 2 -d 3 -p cbr -e 24 -c 2 -i 11 -a 2 -x {1.0 5.0 11 ------- null}
r -t 0.542426666666667 -s 3 -d 5 -p cbr -e 1000 -c 2 -i 6 -a 2 -x {1.0 5.0 6 ------- null}
r -t 0.542810666666667 -s 3 -d 5 -p cbr -e 24 -c 2 -i 7 -a 2 -x {1.0 5.0 7 ------- null}
- -t 0.550266666666667 -s 2 -d 3 -p cbr -e 24 -c 2 -i 11 -a 2 -x {1.0 5.0 11 ------- null}
h -t 0.550266666666667 -s 2 -d 3 -p cbr -e 24 -c 2 -i 11 -a 2 -x {1.0 5.0 -1 ------- null}
r -t 0.568346666666667 -s 2 -d 3 -p cbr -e 1000 -c 2 -i 8 -a 2 -x {1.0 5.0 8 ------- null}
+ -t 0.568346666666667 -s 3 -d 5 -p cbr -e 1000 -c 2 -i 8 -a 2 -x {1.0 5.0 8 ------- null}
- -t 0.568346666666667 -s 3 -d 5 -p cbr -e 1000 -c 2 -i 8 -a 2 -x {1.0 5.0 8 ------- null}
h -t 0.568346666666667 -s 3 -d 5 -p cbr -e 1000 -c 2 -i 8 -a 2 -x {1.0 5.0 -1 ------- null}
r -t 0.568986666666667 -s 2 -d 3 -p cbr -e 24 -c 2 -i 9 -a 2 -x {1.0 5.0 9 ------- null}
+ -t 0.568986666666667 -s 3 -d 5 -p cbr -e 24 -c 2 -i 9 -a 2 -x {1.0 5.0 9 ------- null}
- -t 0.584346666666667 -s 3 -d 5 -p cbr -e 24 -c 2 -i 9 -a 2 -x {1.0 5.0 9 ------- null}
h -t 0.584346666666667 -s 3 -d 5 -p cbr -e 24 -c 2 -i 9 -a 2 -x {1.0 5.0 -1 ------- null}
+ -t 0.59152 -s 1 -d 2 -p cbr -e 1000 -c 2 -i 12 -a 2 -x {1.0 5.0 12 ------- null}
- -t 0.59152 -s 1 -d 2 -p cbr -e 1000 -c 2 -i 12 -a 2 -x {1.0 5.0 12 ------- null}
h -t 0.59152 -s 1 -d 2 -p cbr -e 1000 -c 2 -i 12 -a 2 -x {1.0 5.0 -1 ------- null}
+ -t 0.59152 -s 1 -d 2 -p cbr -e 24 -c 2 -i 13 -a 2 -x {1.0 5.0 13 ------- null}
- -t 0.59552 -s 1 -d 2 -p cbr -e 24 -c 2 -i 13 -a 2 -x {1.0 5.0 13 ------- null}
h -t 0.59552 -s 1 -d 2 -p cbr -e 24 -c 2 -i 13 -a 2 -x {1.0 5.0 -1 ------- null}
r -t 0.60552 -s 1 -d 2 -p cbr -e 1000 -c 2 -i 12 -a 2 -x {1.0 5.0 12 ------- null}
+ -t 0.60552 -s 2 -d 3 -p cbr -e 1000 -c 2 -i 12 -a 2 -x {1.0 5.0 12 ------- null}
- -t 0.60552 -s 2 -d 3 -p cbr -e 1000 -c 2 -i 12 -a 2 -x {1.0 5.0 12 ------- null}
h -t 0.60552 -s 2 -d 3 -p cbr -e 1000 -c 2 -i 12 -a 2 -x {1.0 5.0 -1 ------- null}
r -t 0.605616 -s 1 -d 2 -p cbr -e 24 -c 2 -i 13 -a 2 -x {1.0 5.0 13 ------- null}
+ -t 0.605616 -s 2 -d 3 -p cbr -e 24 -c 2 -i 13 -a 2 -x {1.0 5.0 13 ------- null}
r -t 0.624346666666667 -s 3 -d 5 -p cbr -e 1000 -c 2 -i 8 -a 2 -x {1.0 5.0 8 ------- null}
r -t 0.624730666666667 -s 3 -d 5 -p cbr -e 24 -c 2 -i 9 -a 2 -x {1.0 5.0 9 ------- null}
- -t 0.632186666666667 -s 2 -d 3 -p cbr -e 24 -c 2 -i 13 -a 2 -x {1.0 5.0 13 ------- null}
h -t 0.632186666666667 -s 2 -d 3 -p cbr -e 24 -c 2 -i 13 -a 2 -x {1.0 5.0 -1 ------- null}
r -t 0.650266666666667 -s 2 -d 3 -p cbr -e 1000 -c 2 -i 10 -a 2 -x {1.0 5.0 10 ------- null}
+ -t 0.650266666666667 -s 3 -d 5 -p cbr -e 1000 -c 2 -i 10 -a 2 -x {1.0 5.0 10 ------- null}
- -t 0.650266666666667 -s 3 -d 5 -p cbr -e 1000 -c 2 -i 10 -a 2 -x {1.0 5.0 10 ------- null}
h -t 0.650266666666667 -s 3 -d 5 -p cbr -e 1000 -c 2 -i 10 -a 2 -x {1.0 5.0 -1 ------- null}
r -t 0.650906666666667 -s 2 -d 3 -p cbr -e 24 -c 2 -i 11 -a 2 -x {1.0 5.0 11 ------- null}
+ -t 0.650906666666667 -s 3 -d 5 -p cbr -e 24 -c 2 -i 11 -a 2 -x {1.0 5.0 11 ------- null}
- -t 0.666266666666667 -s 3 -d 5 -p cbr -e 24 -c 2 -i 11 -a 2 -x {1.0 5.0 11 ------- null}
h -t 0.666266666666667 -s 3 -d 5 -p cbr -e 24 -c 2 -i 11 -a 2 -x {1.0 5.0 -1 ------- null}
+ -t 0.67344 -s 1 -d 2 -p cbr -e 1000 -c 2 -i 14 -a 2 -x {1.0 5.0 14 ------- null}
- -t 0.67344 -s 1 -d 2 -p cbr -e 1000 -c 2 -i 14 -a 2 -x {1.0 5.0 14 ------- null}
h -t 0.67344 -s 1 -d 2 -p cbr -e 1000 -c 2 -i 14 -a 2 -x {1.0 5.0 -1 ------- null}
+ -t 0.67344 -s 1 -d 2 -p cbr -e 24 -c 2 -i 15 -a 2 -x {1.0 5.0 15 ------- null}
- -t 0.67744 -s 1 -d 2 -p cbr -e 24 -c 2 -i 15 -a 2 -x {1.0 5.0 15 ------- null}
h -t 0.67744 -s 1 -d 2 -p cbr -e 24 -c 2 -i 15 -a 2 -x {1.0 5.0 -1 ------- null}
r -t 0.68744 -s 1 -d 2 -p cbr -e 1000 -c 2 -i 14 -a 2 -x {1.0 5.0 14 ------- null}
+ -t 0.68744 -s 2 -d 3 -p cbr -e 1000 -c 2 -i 14 -a 2 -x {1.0 5.0 14 ------- null}
- -t 0.68744 -s 2 -d 3 -p cbr -e 1000 -c 2 -i 14 -a 2 -x {1.0 5.0 14 ------- null}
h -t 0.68744 -s 2 -d 3 -p cbr -e 1000 -c 2 -i 14 -a 2 -x {1.0 5.0 -1 ------- null}
r -t 0.687536 -s 1 -d 2 -p cbr -e 24 -c 2 -i 15 -a 2 -x {1.0 5.0 15 ------- null}
+ -t 0.687536 -s 2 -d 3 -p cbr -e 24 -c 2 -i 15 -a 2 -x {1.0 5.0 15 ------- null}
r -t 0.706266666666667 -s 3 -d 5 -p cbr -e 1000 -c 2 -i 10 -a 2 -x {1.0 5.0 10 ------- null}
r -t 0.706650666666667 -s 3 -d 5 -p cbr -e 24 -c 2 -i 11 -a 2 -x {1.0 5.0 11 ------- null}
- -t 0.714106666666667 -s 2 -d 3 -p cbr -e 24 -c 2 -i 15 -a 2 -x {1.0 5.0 15 ------- null}
h -t 0.714106666666667 -s 2 -d 3 -p cbr -e 24 -c 2 -i 15 -a 2 -x {1.0 5.0 -1 ------- null}
r -t 0.732186666666667 -s 2 -d 3 -p cbr -e 1000 -c 2 -i 12 -a 2 -x {1.0 5.0 12 ------- null}
+ -t 0.732186666666667 -s 3 -d 5 -p cbr -e 1000 -c 2 -i 12 -a 2 -x {1.0 5.0 12 ------- null}
- -t 0.732186666666667 -s 3 -d 5 -p cbr -e 1000 -c 2 -i 12 -a 2 -x {1.0 5.0 12 ------- null}
h -t 0.732186666666667 -s 3 -d 5 -p cbr -e 1000 -c 2 -i 12 -a 2 -x {1.0 5.0 -1 ------- null}
r -t 0.732826666666667 -s 2 -d 3 -p cbr -e 24 -c 2 -i 13 -a 2 -x {1.0 5.0 13 ------- null}
+ -t 0.732826666666667 -s 3 -d 5 -p cbr -e 24 -c 2 -i 13 -a 2 -x {1.0 5.0 13 ------- null}
- -t 0.748186666666667 -s 3 -d 5 -p cbr -e 24 -c 2 -i 13 -a 2 -x {1.0 5.0 13 ------- null}
h -t 0.748186666666667 -s 3 -d 5 -p cbr -e 24 -c 2 -i 13 -a 2 -x {1.0 5.0 -1 ------- null}
+ -t 0.75536 -s 1 -d 2 -p cbr -e 1000 -c 2 -i 16 -a 2 -x {1.0 5.0 16 ------- null}
- -t 0.75536 -s 1 -d 2 -p cbr -e 1000 -c 2 -i 16 -a 2 -x {1.0 5.0 16 ------- null}
h -t 0.75536 -s 1 -d 2 -p cbr -e 1000 -c 2 -i 16 -a 2 -x {1.0 5.0 -1 ------- null}
+ -t 0.75536 -s 1 -d 2 -p cbr -e 24 -c 2 -i 17 -a 2 -x {1.0 5.0 17 ------- null}
- -t 0.75936 -s 1 -d 2 -p cbr -e 24 -c 2 -i 17 -a 2 -x {1.0 5.0 17 ------- null}
h -t 0.75936 -s 1 -d 2 -p cbr -e 24 -c 2 -i 17 -a 2 -x {1.0 5.0 -1 ------- null}
r -t 0.76936 -s 1 -d 2 -p cbr -e 1000 -c 2 -i 16 -a 2 -x {1.0 5.0 16 ------- null}
+ -t 0.76936 -s 2 -d 3 -p cbr -e 1000 -c 2 -i 16 -a 2 -x {1.0 5.0 16 ------- null}
- -t 0.76936 -s 2 -d 3 -p cbr -e 1000 -c 2 -i 16 -a 2 -x {1.0 5.0 16 ------- null}
h -t 0.76936 -s 2 -d 3 -p cbr -e 1000 -c 2 -i 16 -a 2 -x {1.0 5.0 -1 ------- null}
r -t 0.769456 -s 1 -d 2 -p cbr -e 24 -c 2 -i 17 -a 2 -x {1.0 5.0 17 ------- null}
+ -t 0.769456 -s 2 -d 3 -p cbr -e 24 -c 2 -i 17 -a 2 -x {1.0 5.0 17 ------- null}
r -t 0.788186666666667 -s 3 -d 5 -p cbr -e 1000 -c 2 -i 12 -a 2 -x {1.0 5.0 12 ------- null}
r -t 0.788570666666667 -s 3 -d 5 -p cbr -e 24 -c 2 -i 13 -a 2 -x {1.0 5.0 13 ------- null}
- -t 0.796026666666667 -s 2 -d 3 -p cbr -e 24 -c 2 -i 17 -a 2 -x {1.0 5.0 17 ------- null}
h -t 0.796026666666667 -s 2 -d 3 -p cbr -e 24 -c 2 -i 17 -a 2 -x {1.0 5.0 -1 ------- null}
r -t 0.814106666666667 -s 2 -d 3 -p cbr -e 1000 -c 2 -i 14 -a 2 -x {1.0 5.0 14 ------- null}
+ -t 0.814106666666667 -s 3 -d 5 -p cbr -e 1000 -c 2 -i 14 -a 2 -x {1.0 5.0 14 ------- null}
- -t 0.814106666666667 -s 3 -d 5 -p cbr -e 1000 -c 2 -i 14 -a 2 -x {1.0 5.0 14 ------- null}
h -t 0.814106666666667 -s 3 -d 5 -p cbr -e 1000 -c 2 -i 14 -a 2 -x {1.0 5.0 -1 ------- null}
r -t 0.814746666666667 -s 2 -d 3 -p cbr -e 24 -c 2 -i 15 -a 2 -x {1.0 5.0 15 ------- null}
+ -t 0.814746666666667 -s 3 -d 5 -p cbr -e 24 -c 2 -i 15 -a 2 -x {1.0 5.0 15 ------- null}
- -t 0.830106666666667 -s 3 -d 5 -p cbr -e 24 -c 2 -i 15 -a 2 -x {1.0 5.0 15 ------- null}
h -t 0.830106666666667 -s 3 -d 5 -p cbr -e 24 -c 2 -i 15 -a 2 -x {1.0 5.0 -1 ------- null}
+ -t 0.83728 -s 1 -d 2 -p cbr -e 1000 -c 2 -i 18 -a 2 -x {1.0 5.0 18 ------- null}
- -t 0.83728 -s 1 -d 2 -p cbr -e 1000 -c 2 -i 18 -a 2 -x {1.0 5.0 18 ------- null}
h -t 0.83728 -s 1 -d 2 -p cbr -e 1000 -c 2 -i 18 -a 2 -x {1.0 5.0 -1 ------- null}
+ -t 0.83728 -s 1 -d 2 -p cbr -e 24 -c 2 -i 19 -a 2 -x {1.0 5.0 19 ------- null}
- -t 0.84128 -s 1 -d 2 -p cbr -e 24 -c 2 -i 19 -a 2 -x {1.0 5.0 19 ------- null}
h -t 0.84128 -s 1 -d 2 -p cbr -e 24 -c 2 -i 19 -a 2 -x {1.0 5.0 -1 ------- null}
r -t 0.85128 -s 1 -d 2 -p cbr -e 1000 -c 2 -i 18 -a 2 -x {1.0 5.0 18 ------- null}
+ -t 0.85128 -s 2 -d 3 -p cbr -e 1000 -c 2 -i 18 -a 2 -x {1.0 5.0 18 ------- null}
- -t 0.85128 -s 2 -d 3 -p cbr -e 1000 -c 2 -i 18 -a 2 -x {1.0 5.0 18 ------- null}
h -t 0.85128 -s 2 -d 3 -p cbr -e 1000 -c 2 -i 18 -a 2 -x {1.0 5.0 -1 ------- null}
r -t 0.851376 -s 1 -d 2 -p cbr -e 24 -c 2 -i 19 -a 2 -x {1.0 5.0 19 ------- null}
+ -t 0.851376 -s 2 -d 3 -p cbr -e 24 -c 2 -i 19 -a 2 -x {1.0 5.0 19 ------- null}
r -t 0.870106666666667 -s 3 -d 5 -p cbr -e 1000 -c 2 -i 14 -a 2 -x {1.0 5.0 14 ------- null}
r -t 0.870490666666667 -s 3 -d 5 -p cbr -e 24 -c 2 -i 15 -a 2 -x {1.0 5.0 15 ------- null}
- -t 0.877946666666667 -s 2 -d 3 -p cbr -e 24 -c 2 -i 19 -a 2 -x {1.0 5.0 19 ------- null}
h -t 0.877946666666667 -s 2 -d 3 -p cbr -e 24 -c 2 -i 19 -a 2 -x {1.0 5.0 -1 ------- null}
r -t 0.896026666666667 -s 2 -d 3 -p cbr -e 1000 -c 2 -i 16 -a 2 -x {1.0 5.0 16 ------- null}
+ -t 0.896026666666667 -s 3 -d 5 -p cbr -e 1000 -c 2 -i 16 -a 2 -x {1.0 5.0 16 ------- null}
- -t 0.896026666666667 -s 3 -d 5 -p cbr -e 1000 -c 2 -i 16 -a 2 -x {1.0 5.0 16 ------- null}
h -t 0.896026666666667 -s 3 -d 5 -p cbr -e 1000 -c 2 -i 16 -a 2 -x {1.0 5.0 -1 ------- null}
r -t 0.896666666666667 -s 2 -d 3 -p cbr -e 24 -c 2 -i 17 -a 2 -x {1.0 5.0 17 ------- null}
+ -t 0.896666666666667 -s 3 -d 5 -p cbr -e 24 -c 2 -i 17 -a 2 -x {1.0 5.0 17 ------- null}
- -t 0.912026666666667 -s 3 -d 5 -p cbr -e 24 -c 2 -i 17 -a 2 -x {1.0 5.0 17 ------- null}
h -t 0.912026666666667 -s 3 -d 5 -p cbr -e 24 -c 2 -i 17 -a 2 -x {1.0 5.0 -1 ------- null}
+ -t 0.9192 -s 1 -d 2 -p cbr -e 1000 -c 2 -i 20 -a 2 -x {1.0 5.0 20 ------- null}
- -t 0.9192 -s 1 -d 2 -p cbr -e 1000 -c 2 -i 20 -a 2 -x {1.0 5.0 20 ------- null}
h -t 0.9192 -s 1 -d 2 -p cbr -e 1000 -c 2 -i 20 -a 2 -x {1.0 5.0 -1 ------- null}
+ -t 0.9192 -s 1 -d 2 -p cbr -e 24 -c 2 -i 21 -a 2 -x {1.0 5.0 21 ------- null}
- -t 0.9232 -s 1 -d 2 -p cbr -e 24 -c 2 -i 21 -a 2 -x {1.0 5.0 21 ------- null}
h -t 0.9232 -s 1 -d 2 -p cbr -e 24 -c 2 -i 21 -a 2 -x {1.0 5.0 -1 ------- null}
r -t 0.9332 -s 1 -d 2 -p cbr -e 1000 -c 2 -i 20 -a 2 -x {1.0 5.0 20 ------- null}
+ -t 0.9332 -s 2 -d 3 -p cbr -e 1000 -c 2 -i 20 -a 2 -x {1.0 5.0 20 ------- null}
- -t 0.9332 -s 2 -d 3 -p cbr -e 1000 -c 2 -i 20 -a 2 -x {1.0 5.0 20 ------- null}
h -t 0.9332 -s 2 -d 3 -p cbr -e 1000 -c 2 -i 20 -a 2 -x {1.0 5.0 -1 ------- null}
r -t 0.933296 -s 1 -d 2 -p cbr -e 24 -c 2 -i 21 -a 2 -x {1.0 5.0 21 ------- null}
+ -t 0.933296 -s 2 -d 3 -p cbr -e 24 -c 2 -i 21 -a 2 -x {1.0 5.0 21 ------- null}
r -t 0.952026666666667 -s 3 -d 5 -p cbr -e 1000 -c 2 -i 16 -a 2 -x {1.0 5.0 16 ------- null}
r -t 0.952410666666667 -s 3 -d 5 -p cbr -e 24 -c 2 -i 17 -a 2 -x {1.0 5.0 17 ------- null}
- -t 0.959866666666667 -s 2 -d 3 -p cbr -e 24 -c 2 -i 21 -a 2 -x {1.0 5.0 21 ------- null}
h -t 0.959866666666667 -s 2 -d 3 -p cbr -e 24 -c 2 -i 21 -a 2 -x {1.0 5.0 -1 ------- null}
r -t 0.977946666666667 -s 2 -d 3 -p cbr -e 1000 -c 2 -i 18 -a 2 -x {1.0 5.0 18 ------- null}
+ -t 0.977946666666667 -s 3 -d 5 -p cbr -e 1000 -c 2 -i 18 -a 2 -x {1.0 5.0 18 ------- null}
- -t 0.977946666666667 -s 3 -d 5 -p cbr -e 1000 -c 2 -i 18 -a 2 -x {1.0 5.0 18 ------- null}
h -t 0.977946666666667 -s 3 -d 5 -p cbr -e 1000 -c 2 -i 18 -a 2 -x {1.0 5.0 -1 ------- null}
r -t 0.978586666666667 -s 2 -d 3 -p cbr -e 24 -c 2 -i 19 -a 2 -x {1.0 5.0 19 ------- null}
+ -t 0.978586666666667 -s 3 -d 5 -p cbr -e 24 -c 2 -i 19 -a 2 -x {1.0 5.0 19 ------- null}
- -t 0.993946666666667 -s 3 -d 5 -p cbr -e 24 -c 2 -i 19 -a 2 -x {1.0 5.0 19 ------- null}
h -t 0.993946666666667 -s 3 -d 5 -p cbr -e 24 -c 2 -i 19 -a 2 -x {1.0 5.0 -1 ------- null}
+ -t 1 -s 0 -d 2 -p tcp -e 40 -c 1 -i 22 -a 1 -x {0.0 4.0 0 ------- null}
- -t 1 -s 0 -d 2 -p tcp -e 40 -c 1 -i 22 -a 1 -x {0.0 4.0 0 ------- null}
h -t 1 -s 0 -d 2 -p tcp -e 40 -c 1 -i 22 -a 1 -x {0.0 4.0 -1 ------- null}
+ -t 1.00112 -s 1 -d 2 -p cbr -e 1000 -c 2 -i 23 -a 2 -x {1.0 5.0 22 ------- null}
- -t 1.00112 -s 1 -d 2 -p cbr -e 1000 -c 2 -i 23 -a 2 -x {1.0 5.0 22 ------- null}
h -t 1.00112 -s 1 -d 2 -p cbr -e 1000 -c 2 -i 23 -a 2 -x {1.0 5.0 -1 ------- null}
+ -t 1.00112 -s 1 -d 2 -p cbr -e 24 -c 2 -i 24 -a 2 -x {1.0 5.0 23 ------- null}
- -t 1.00512 -s 1 -d 2 -p cbr -e 24 -c 2 -i 24 -a 2 -x {1.0 5.0 23 ------- null}
h -t 1.00512 -s 1 -d 2 -p cbr -e 24 -c 2 -i 24 -a 2 -x {1.0 5.0 -1 ------- null}
r -t 1.01016 -s 0 -d 2 -p tcp -e 40 -c 1 -i 22 -a 1 -x {0.0 4.0 0 ------- null}
+ -t 1.01016 -s 2 -d 3 -p tcp -e 40 -c 1 -i 22 -a 1 -x {0.0 4.0 0 ------- null}
- -t 1.01016 -s 2 -d 3 -p tcp -e 40 -c 1 -i 22 -a 1 -x {0.0 4.0 0 ------- null}
h -t 1.01016 -s 2 -d 3 -p tcp -e 40 -c 1 -i 22 -a 1 -x {0.0 4.0 -1 ------- null}
r -t 1.01512 -s 1 -d 2 -p cbr -e 1000 -c 2 -i 23 -a 2 -x {1.0 5.0 22 ------- null}
+ -t 1.01512 -s 2 -d 3 -p cbr -e 1000 -c 2 -i 23 -a 2 -x {1.0 5.0 22 ------- null}
- -t 1.01512 -s 2 -d 3 -p cbr -e 1000 -c 2 -i 23 -a 2 -x {1.0 5.0 22 ------- null}
h -t 1.01512 -s 2 -d 3 -p cbr -e 1000 -c 2 -i 23 -a 2 -x {1.0 5.0 -1 ------- null}
r -t 1.015216 -s 1 -d 2 -p cbr -e 24 -c 2 -i 24 -a 2 -x {1.0 5.0 23 ------- null}
+ -t 1.015216 -s 2 -d 3 -p cbr -e 24 -c 2 -i 24 -a 2 -x {1.0 5.0 23 ------- null}
r -t 1.03394666666667 -s 3 -d 5 -p cbr -e 1000 -c 2 -i 18 -a 2 -x {1.0 5.0 18 ------- null}
r -t 1.03433066666667 -s 3 -d 5 -p cbr -e 24 -c 2 -i 19 -a 2 -x {1.0 5.0 19 ------- null}
- -t 1.04178666666667 -s 2 -d 3 -p cbr -e 24 -c 2 -i 24 -a 2 -x {1.0 5.0 23 ------- null}
h -t 1.04178666666667 -s 2 -d 3 -p cbr -e 24 -c 2 -i 24 -a 2 -x {1.0 5.0 -1 ------- null}
r -t 1.05986666666667 -s 2 -d 3 -p cbr -e 1000 -c 2 -i 20 -a 2 -x {1.0 5.0 20 ------- null}
+ -t 1.05986666666667 -s 3 -d 5 -p cbr -e 1000 -c 2 -i 20 -a 2 -x {1.0 5.0 20 ------- null}
- -t 1.05986666666667 -s 3 -d 5 -p cbr -e 1000 -c 2 -i 20 -a 2 -x {1.0 5.0 20 ------- null}
h -t 1.05986666666667 -s 3 -d 5 -p cbr -e 1000 -c 2 -i 20 -a 2 -x {1.0 5.0 -1 ------- null}
r -t 1.06050666666667 -s 2 -d 3 -p cbr -e 24 -c 2 -i 21 -a 2 -x {1.0 5.0 21 ------- null}
+ -t 1.06050666666667 -s 3 -d 5 -p cbr -e 24 -c 2 -i 21 -a 2 -x {1.0 5.0 21 ------- null}
- -t 1.07586666666667 -s 3 -d 5 -p cbr -e 24 -c 2 -i 21 -a 2 -x {1.0 5.0 21 ------- null}
h -t 1.07586666666667 -s 3 -d 5 -p cbr -e 24 -c 2 -i 21 -a 2 -x {1.0 5.0 -1 ------- null}
+ -t 1.08304 -s 1 -d 2 -p cbr -e 1000 -c 2 -i 25 -a 2 -x {1.0 5.0 24 ------- null}
- -t 1.08304 -s 1 -d 2 -p cbr -e 1000 -c 2 -i 25 -a 2 -x {1.0 5.0 24 ------- null}
h -t 1.08304 -s 1 -d 2 -p cbr -e 1000 -c 2 -i 25 -a 2 -x {1.0 5.0 -1 ------- null}
+ -t 1.08304 -s 1 -d 2 -p cbr -e 24 -c 2 -i 26 -a 2 -x {1.0 5.0 25 ------- null}
- -t 1.08704 -s 1 -d 2 -p cbr -e 24 -c 2 -i 26 -a 2 -x {1.0 5.0 25 ------- null}
h -t 1.08704 -s 1 -d 2 -p cbr -e 24 -c 2 -i 26 -a 2 -x {1.0 5.0 -1 ------- null}
r -t 1.09704 -s 1 -d 2 -p cbr -e 1000 -c 2 -i 25 -a 2 -x {1.0 5.0 24 ------- null}
+ -t 1.09704 -s 2 -d 3 -p cbr -e 1000 -c 2 -i 25 -a 2 -x {1.0 5.0 24 ------- null}
- -t 1.09704 -s 2 -d 3 -p cbr -e 1000 -c 2 -i 25 -a 2 -x {1.0 5.0 24 ------- null}
h -t 1.09704 -s 2 -d 3 -p cbr -e 1000 -c 2 -i 25 -a 2 -x {1.0 5.0 -1 ------- null}
r -t 1.097136 -s 1 -d 2 -p cbr -e 24 -c 2 -i 26 -a 2 -x {1.0 5.0 25 ------- null}
+ -t 1.097136 -s 2 -d 3 -p cbr -e 24 -c 2 -i 26 -a 2 -x {1.0 5.0 25 ------- null}
r -t 1.11122666666667 -s 2 -d 3 -p tcp -e 40 -c 1 -i 22 -a 1 -x {0.0 4.0 0 ------- null}
+ -t 1.11122666666667 -s 3 -d 4 -p tcp -e 40 -c 1 -i 22 -a 1 -x {0.0 4.0 0 ------- null}
- -t 1.11122666666667 -s 3 -d 4 -p tcp -e 40 -c 1 -i 22 -a 1 -x {0.0 4.0 0 ------- null}
h -t 1.11122666666667 -s 3 -d 4 -p tcp -e 40 -c 1 -i 22 -a 1 -x {0.0 4.0 -1 ------- null}
r -t 1.11586666666667 -s 3 -d 5 -p cbr -e 1000 -c 2 -i 20 -a 2 -x {1.0 5.0 20 ------- null}
r -t 1.11625066666667 -s 3 -d 5 -p cbr -e 24 -c 2 -i 21 -a 2 -x {1.0 5.0 21 ------- null}
- -t 1.12370666666667 -s 2 -d 3 -p cbr -e 24 -c 2 -i 26 -a 2 -x {1.0 5.0 25 ------- null}
h -t 1.12370666666667 -s 2 -d 3 -p cbr -e 24 -c 2 -i 26 -a 2 -x {1.0 5.0 -1 ------- null}
r -t 1.14178666666667 -s 2 -d 3 -p cbr -e 1000 -c 2 -i 23 -a 2 -x {1.0 5.0 22 ------- null}
+ -t 1.14178666666667 -s 3 -d 5 -p cbr -e 1000 -c 2 -i 23 -a 2 -x {1.0 5.0 22 ------- null}
- -t 1.14178666666667 -s 3 -d 5 -p cbr -e 1000 -c 2 -i 23 -a 2 -x {1.0 5.0 22 ------- null}
h -t 1.14178666666667 -s 3 -d 5 -p cbr -e 1000 -c 2 -i 23 -a 2 -x {1.0 5.0 -1 ------- null}
r -t 1.14242666666667 -s 2 -d 3 -p cbr -e 24 -c 2 -i 24 -a 2 -x {1.0 5.0 23 ------- null}
+ -t 1.14242666666667 -s 3 -d 5 -p cbr -e 24 -c 2 -i 24 -a 2 -x {1.0 5.0 23 ------- null}
r -t 1.15186666666667 -s 3 -d 4 -p tcp -e 40 -c 1 -i 22 -a 1 -x {0.0 4.0 0 ------- null}
+ -t 1.15186666666667 -s 4 -d 3 -p ack -e 40 -c 1 -i 27 -a 1 -x {4.0 0.0 0 ------- null}
- -t 1.15186666666667 -s 4 -d 3 -p ack -e 40 -c 1 -i 27 -a 1 -x {4.0 0.0 0 ------- null}
h -t 1.15186666666667 -s 4 -d 3 -p ack -e 40 -c 1 -i 27 -a 1 -x {4.0 0.0 -1 ------- null}
- -t 1.15778666666667 -s 3 -d 5 -p cbr -e 24 -c 2 -i 24 -a 2 -x {1.0 5.0 23 ------- null}
h -t 1.15778666666667 -s 3 -d 5 -p cbr -e 24 -c 2 -i 24 -a 2 -x {1.0 5.0 -1 ------- null}
+ -t 1.16496 -s 1 -d 2 -p cbr -e 1000 -c 2 -i 28 -a 2 -x {1.0 5.0 26 ------- null}
- -t 1.16496 -s 1 -d 2 -p cbr -e 1000 -c 2 -i 28 -a 2 -x {1.0 5.0 26 ------- null}
h -t 1.16496 -s 1 -d 2 -p cbr -e 1000 -c 2 -i 28 -a 2 -x {1.0 5.0 -1 ------- null}
+ -t 1.16496 -s 1 -d 2 -p cbr -e 24 -c 2 -i 29 -a 2 -x {1.0 5.0 27 ------- null}
- -t 1.16896 -s 1 -d 2 -p cbr -e 24 -c 2 -i 29 -a 2 -x {1.0 5.0 27 ------- null}
h -t 1.16896 -s 1 -d 2 -p cbr -e 24 -c 2 -i 29 -a 2 -x {1.0 5.0 -1 ------- null}
r -t 1.17896 -s 1 -d 2 -p cbr -e 1000 -c 2 -i 28 -a 2 -x {1.0 5.0 26 ------- null}
+ -t 1.17896 -s 2 -d 3 -p cbr -e 1000 -c 2 -i 28 -a 2 -x {1.0 5.0 26 ------- null}
- -t 1.17896 -s 2 -d 3 -p cbr -e 1000 -c 2 -i 28 -a 2 -x {1.0 5.0 26 ------- null}
h -t 1.17896 -s 2 -d 3 -p cbr -e 1000 -c 2 -i 28 -a 2 -x {1.0 5.0 -1 ------- null}
r -t 1.179056 -s 1 -d 2 -p cbr -e 24 -c 2 -i 29 -a 2 -x {1.0 5.0 27 ------- null}
+ -t 1.179056 -s 2 -d 3 -p cbr -e 24 -c 2 -i 29 -a 2 -x {1.0 5.0 27 ------- null}
r -t 1.19250666666667 -s 4 -d 3 -p ack -e 40 -c 1 -i 27 -a 1 -x {4.0 0.0 0 ------- null}
+ -t 1.19250666666667 -s 3 -d 2 -p ack -e 40 -c 1 -i 27 -a 1 -x {4.0 0.0 0 ------- null}
- -t 1.19250666666667 -s 3 -d 2 -p ack -e 40 -c 1 -i 27 -a 1 -x {4.0 0.0 0 ------- null}
h -t 1.19250666666667 -s 3 -d 2 -p ack -e 40 -c 1 -i 27 -a 1 -x {4.0 0.0 -1 ------- null}
r -t 1.19778666666667 -s 3 -d 5 -p cbr -e 1000 -c 2 -i 23 -a 2 -x {1.0 5.0 22 ------- null}
r -t 1.19817066666667 -s 3 -d 5 -p cbr -e 24 -c 2 -i 24 -a 2 -x {1.0 5.0 23 ------- null}
- -t 1.20562666666667 -s 2 -d 3 -p cbr -e 24 -c 2 -i 29 -a 2 -x {1.0 5.0 27 ------- null}
h -t 1.20562666666667 -s 2 -d 3 -p cbr -e 24 -c 2 -i 29 -a 2 -x {1.0 5.0 -1 ------- null}
r -t 1.22370666666667 -s 2 -d 3 -p cbr -e 1000 -c 2 -i 25 -a 2 -x {1.0 5.0 24 ------- null}
+ -t 1.22370666666667 -s 3 -d 5 -p cbr -e 1000 -c 2 -i 25 -a 2 -x {1.0 5.0 24 ------- null}
- -t 1.22370666666667 -s 3 -d 5 -p cbr -e 1000 -c 2 -i 25 -a 2 -x {1.0 5.0 24 ------- null}
h -t 1.22370666666667 -s 3 -d 5 -p cbr -e 1000 -c 2 -i 25 -a 2 -x {1.0 5.0 -1 ------- null}